64
Lattice="9.483921 0.0 0.0 0.0 9.483921 0.0 0.0 0.0 9.483921" Properties=species:S:1:pos:R:3:force:R:3 config_type=nep2xyz virial="-91.83727246760407 -5.981134380267853 -7.926070952889274 -5.981134380267853 -92.09225848557273 -10.738280502729603 -7.926070952889274 -10.738280502729603 -53.35393417315431" energy=-409.577622 pbc="T T T"
C        8.74366000       9.43119000       8.16739000      -4.53610900      -2.48604600       4.59299500
C        0.91345000       0.69376000       2.22683000       2.84891600       1.15215200      -3.73409400
C        0.36297000       0.71151000       4.55783000       4.81881900       7.49068700      -4.13255500
C        9.16267000       9.27848000       5.13478000      -4.78697100      -5.46983100       4.15794600
C        0.53232000       2.98087000       0.90660000      -1.96268700      -1.89628500       3.53100800
C        0.38674000       1.88499000       1.80433000      -0.06254900       0.51228200      -2.56393300
C        8.91782000       1.80065000       4.20656000       3.43494300       1.45933700      -0.80162500
C        0.13184000       2.24686000       7.00628000       4.33183700      -2.37554800       2.15015800
C        0.20409000       4.11285000       1.88202000       5.69130700      -2.18161200      -0.06537100
C        8.63844000       4.86972000       1.77519000      -5.25905900       4.87349900       0.00173500
C        0.25343000       4.11397000       4.17544000       0.67536700      -1.29583700      -1.41212600
C        8.48374000       4.38944000       8.99348000       0.21355500       1.08524800       0.01558800
C        8.93015000       7.98125000       8.49454000      -1.81318100       0.14486000       2.40817300
C        1.59633000       6.32816000       2.77862000       2.39285700      -2.38411800       2.60433900
C        1.16628000       7.41070000       5.11487000       3.37410100      -2.15549100       1.03496400
C        7.87418000       6.33582000       7.02386000       0.65359300      -0.54199000       2.25842100
C        1.48715000       8.69542000       9.23692000       1.76606800      -2.63703600       1.62850800
C        1.93245000       0.40282000       1.19449000      -3.10743900      -3.01090700       0.16274900
C        1.93665000       1.42761000       3.97501000       1.93175000      -1.52078600       0.83732000
C        2.94450000       1.07514000       7.65694000      -1.34461800       2.21820500       0.98170400
C        2.95402000       3.49650000       1.39030000      -3.99899900       0.82494900      -3.03704900
C        4.26176000       3.20944000       1.58963000       2.17385700       1.28099200       2.76757100
C        3.24296000       1.70828000       3.85663000      -4.13562100       0.17139300       1.49759000
C        1.53693000       1.52137000       7.66559000       1.12513800       0.36475900      -2.31746200
C        3.16562000       3.52367000       9.24274000       1.02571200      -0.51086400       2.82030300
C        1.50374000       4.56160000       2.34411000      -0.43248500       1.07868000       1.41952700
C        2.81168000       4.74611000       5.48209000       1.63589700       2.89951900       4.84786000
C        3.77448000       3.93653000       7.04881000      -0.42930300       1.51894300       0.77729800
C        2.00795000       7.03206000       8.89516000      -1.48239200       5.28920200      -0.38792400
C        2.30891000       7.14109000       1.91335000       4.91706400       0.03671700       0.27843300
C        1.76643000       6.49189000       4.29881000      -3.19010800       2.12635600      -3.01289000
C        2.21079000       7.17902000       6.73465000      -0.69274400      -1.01162400      -0.07230000
C        5.09953000       7.12219000       0.02591000      -1.62486700      -4.67293900      -2.74537600
C        5.30973000       7.59907000       2.60519000      -6.88800600      -1.03873200      -3.32851200
C        5.14675000       1.74611000       5.07836000       3.11635100      -1.15107900       4.81821700
C        4.60159000       0.78639000       6.04512000       2.06915200       2.89571300      -4.58420300
C        4.14365000       2.18558000       8.33792000      -3.72094100       1.09814900       0.23440400
C        4.64721000       3.59037000       3.42015000       1.89700700       7.94466100      -2.77651200
C        4.60391000       2.75748000       4.37798000      -4.94962500      -8.05206300       0.17735000
C        4.56265000       0.83748000       7.33357000      -3.30482200      -0.06199600       2.80754700
C        4.05052000       4.43734000       8.85566000       1.70612000       5.12759900      -5.07853300
C        4.49614000       4.59003000       2.02825000       0.51436200      -1.69996000       1.02891200
C        5.07498000       4.94569000       3.79973000       1.04311800      -1.09417900       1.09387400
C        2.81701000       6.00059000       6.43459000       0.62532900      -2.43733700      -1.53999500
C        4.84028000       5.77580000       8.80503000      -2.27287400       2.64871300       1.39573300
C        4.01142000       7.15269000       2.02221000       1.46394300       2.15949000       1.05861400
C        5.02181000       5.63949000       5.03358000       0.24732800       0.24264000      -1.05902100
C        4.60806000       7.02695000       7.20477000      -0.91738100      -2.24503700       2.13579200
C        7.50333000       0.24867000       9.16925000       4.59983400      -1.46538300      -3.39376000
C        8.11325000       7.91711000       1.97619000      -4.83723000      -1.72657600       0.29355900
C        7.73035000       0.53850000       5.35389000      -1.42084300      -1.03566900      -0.06181600
C        8.19619000       8.31752000       5.61332000      -1.86399000       3.67235000      -0.59107100
C        5.40761000       1.94737000       8.68536000      -0.02022700      -1.72077400      -1.08509100
C        7.32876000       2.30779000       2.78266000       1.04204100      -2.19796100       2.05037200
C        7.51554000       1.54652000       4.14094000      -0.45018300       1.85856200      -2.45533100
C        6.84753000       2.14545000       5.34002000      -1.79892800      -3.87762800       0.94256300
C        8.33473000       5.40146000       0.53774000       0.43810700       0.31568500      -3.85113700
C        7.19023000       6.00473000       2.97631000       8.81473500       4.66550900     -14.51030700
C        6.63333000       5.75820000       3.96404000      -6.89626300      -1.84940700      13.40358700
C        8.32947000       4.23030000       7.72320000       0.17517900       0.03613700      -0.55666900
C        8.04750000       6.80190000       9.31108000       1.94175200       1.48135400       0.52656500
C        6.61998000       7.42906000       2.40275000       5.76782000      -0.50987800      -1.12773000
C        6.51153000       6.94906000       4.93031000      -2.16165300      -3.16759000       1.82020500
C        7.12938000       7.17539000       6.27668000       1.88914000       0.80782200      -4.27909200
64
Lattice="9.483921 0.0 0.0 0.0 9.483921 0.0 0.0 0.0 9.483921" Properties=species:S:1:pos:R:3:force:R:3 config_type=nep2xyz virial="30.22867442268112 -18.564304636449727 3.642128023132316 -18.564304636449727 22.86404443239129 14.482164409421113 3.642128023132316 14.482164409421113 16.54960522674814" energy=-416.956788 pbc="T T T"
C        9.26820000       9.29098000       9.06103000      -6.69563800       3.71181800       3.02728400
C        0.88997000       0.23180000       0.68178000      -0.60987400      -1.28091500       4.45701700
C        0.72223000       1.44186000       4.31708000       1.18036300      -2.74909300       0.81226100
C        1.00542000       0.27967000       6.98791000      17.66375500       2.03621500       6.94604400
C        8.22364000       1.03601000       2.92728000       2.38934700       1.04147800      -2.21605300
C        0.70347000       0.56727000       2.19144000      -3.01414600      -0.44898600       0.06877000
C        1.13992000       0.03366000       3.60516000      -4.09534800       5.86402300      -4.15293000
C        0.05768000       0.56196000       6.26598000     -12.02162900       7.34552200      -6.42889400
C        4.25051000       3.65522000       2.06377000      -2.19373200       6.08786600      -8.61851500
C        1.86343000       6.25029000       2.50173000      -3.51551900      13.98723800      -1.32397400
C        2.02537000       1.86742000       4.51399000      -2.77206200       1.62952300      -3.68276900
C        9.25591000       6.17320000       0.25039000      -0.68877400      -5.22466300      -3.08285900
C        7.57397000       7.33927000       8.72038000      -0.90959200       5.11503100       8.90795500
C        2.25336000       7.12281000       4.15285000       0.82222900       3.56871300      -2.80922200
C        0.51956000       8.76740000       6.15708000      -0.65644600      -7.97142500      -3.15295700
C        7.88310000       6.00786000       7.30016000       0.20866600       0.13038200      -6.80243900
C        0.49039000       8.08867000       8.89658000       0.86112700      -3.86379100       1.17806800
C        1.38497000       8.35677000       0.87651000      -0.11070700      -3.15123400      -2.10876700
C        4.32050000       1.85116000       4.99341000       8.94539600       0.76231900      -1.67608600
C        3.29188000       0.94285000       7.58439000       1.18281900      -0.99445600      -0.39953100
C        2.67195000       3.70287000       0.59083000      -0.35454700      -0.61488800      -0.04392400
C        4.12612000       2.48315000       1.51271000      -1.11240800      -2.08447300      -2.66187700
C        3.42463000       1.04774000       5.28861000      -8.31060100     -10.45975900       2.30535300
C        8.60176000       0.44166000       7.68344000      -0.33544400       1.40209400       2.60843800
C        3.46825000       5.16963000       7.52377000       2.16466200       0.46909200      -0.45757200
C        2.26466000       5.14867000       2.53612000       3.26376100     -13.52239500       2.74413600
C        3.03469000       2.36723000       5.43356000       2.98383100       0.62426500       9.79407000
C        3.30848000       3.59437000       7.43077000       1.25262600       4.86709800       2.12530500
C        0.98775000       8.60391000       7.77155000       7.62613600      -2.39806200      -5.65332400
C        1.93254000       7.10902000       1.41316000      -1.39536000       4.15850300      -1.72901000
C        2.06520000       8.66575000       3.75533000       3.52207800      -8.97322300       3.20610100
C        1.94893000       7.04904000       7.82585000      -6.55203700       1.77880600      -0.88628800
C        5.01243000       5.70283000       8.02895000      -4.10374000       0.88842800       0.87660900
C        5.15659000       8.21958000       1.08651000      -2.13539600      -2.92586300       1.65129000
C        5.38326000       1.85828000       3.81301000     -16.55659000       7.84607000       1.30190500
C        2.40653000       0.64530000       6.57861000       4.03286700      -0.63871100       2.35299400
C        4.58065000       2.97132000       7.28420000       1.02291300      -2.06658100      -1.14560700
C        2.63464000       4.82449000       3.82023000       4.44762200      -3.98949300       4.83469500
C        2.71398000       3.16664000       4.60343000      -6.21939200      12.51944400     -11.74316300
C        4.38755000       1.66856000       7.38435000       0.14080700      -0.24048800       2.61350200
C        3.07834000       3.56684000       8.85794000      -1.85651000       1.00461200      -0.29425900
C        4.68153000       3.14915000       3.03506000       7.44247200      -6.82360400      11.15210900
C        8.21268000       5.00975000       4.56325000      -5.48989300       1.50247100       1.09322800
C        3.56629000       5.80498000       4.60792000      -1.27202800      -0.87459200      -1.97869700
C        4.90295000       6.74244000       8.92573000      -1.39493000      -2.16535300       0.77393900
C        4.19171000       6.93846000       0.97818000       3.45494300       1.74170600      -3.34924300
C        4.94612000       5.74808000       5.39112000      -5.49209500     -11.37016800     -12.33713100
C        2.82483000       6.53189000       7.00972000       5.02940200      -1.94295300       1.52518200
C        8.22504000       8.25034000       0.04677000      -0.62913500      -0.02093100       1.09944500
C        5.68031000       6.48592000       2.14256000      -1.08037100       4.80498500      -1.38701600
C        6.06659000       9.32499000       5.36426000       2.49501700       0.51846800      -0.97443200
C        7.17655000       8.85892000       5.93281000      -6.32985400       1.43114900      -5.84069300
C        4.29316000       7.32681000       6.82670000      -3.59956700       1.43369400       4.39470500
C        7.17754000       1.84682000       3.00998000       5.10073600      -2.90093100       0.42684200
C        6.43237000       4.10070000       4.03914000      -0.35073800       1.46796400      -0.32153300
C        6.44629000       1.40174000       4.14171000       7.43458500      -5.25133800       1.28893200
C        8.95375000       4.48217000       9.27753000       0.57128400       5.44708400       1.27701200
C        7.38857000       4.63791000       3.30516000       2.19545300       1.06683500       2.98753300
C        7.44059000       5.77399000       5.82763000       4.95108500      -3.06489200      -0.55618000
C        7.60934000       7.42473000       7.48397000      -1.01549100      -1.74991200      -4.60216900
C        0.20677000       6.75117000       8.15468000       4.23813700      -1.67573800       3.98846500
C        6.03567000       8.05946000       2.05326000       1.23310900      -2.64202900       0.76291700
C        5.04681000       6.73786000       5.97513000       3.84371600       9.57269700       5.60202500
C        7.99419000       9.09996000       6.84916000       1.16864300      -1.74465400       4.23297800
64
Lattice="7.999049 0.0 0.0 0.0 7.999049 0.0 0.0 0.0 7.999049" Properties=species:S:1:pos:R:3:force:R:3 config_type=nep2xyz virial="17.147399117613077 9.380726223471779 16.656249108552554 9.380726223471779 37.17279583527819 -36.42907164335759 16.656249108552554 -36.42907164335759 31.316365141477547" energy=-435.572844 pbc="T T T"
C        1.61642000       0.75515000       2.18700000     -13.66837800      -6.87598700      -4.48243700
C        5.62675000       5.74378000       4.03522000      -0.31373400       1.68854400      -2.62485500
C        7.13114000       7.77275000       3.12177000       0.60076600       6.23822300      -2.08657800
C        1.83865000       0.89731000       7.39616000       0.97778900       2.34307300      -1.64315900
C        4.37899000       2.03513000       7.71144000      -4.01643200     -13.11103800       0.37201600
C        1.25674000       3.58065000       2.88615000      -2.01448900       0.64653300       4.72885700
C        0.42188000       3.55856000       4.08345000       1.34324300      -1.21517100      -0.79611900
C        1.10240000       1.07690000       5.23810000       0.80227000      -2.45981800      -4.62815500
C        0.00373000       4.59137000       6.99194000       1.56953100      -2.25073800      -4.91747900
C        1.14324000       4.57552000       1.88330000      -1.64968600      -3.73527300      -1.53846900
C        5.90827000       4.23610000       3.69785000      -2.76182900      -1.18890800      -2.38361100
C        7.10493000       2.37336000       7.42996000      -4.10478400      -3.77699700       0.02907300
C        0.40070000       4.91705000       0.16398000       3.96371100       4.04057100       5.26351800
C        6.02184000       3.43538000       2.19236000       1.07402800       4.52833800      -1.27393600
C        0.72863000       4.49607000       5.63600000       1.45179100       1.33794300      -2.81144800
C        7.04812000       6.08360000       4.99705000      -5.37863100       4.30622000      -4.17356500
C        7.74361000       6.92207000       0.69173000      -3.34774000       2.90927600       0.35178300
C        2.04686000       7.51809000       7.34539000      -1.07772800       1.18375900       0.91756700
C        1.03271000       5.85638000       2.28454000       3.84422100       0.71986700      -0.64499400
C        0.85009000       7.33154000       5.17783000      -0.22047300       7.91389500     -10.65098700
C        2.54819000       3.33962000       1.08947000       2.32143100      -3.97211900      -1.62979600
C        3.28061000       2.76845000       2.34147000      -3.66700600       1.42941000       2.93494600
C        3.54754000       1.23851000       3.99165000       2.19671800       0.00960700      -2.31629700
C        1.96221000       2.49587000       6.75301000      -5.71302300      -5.56062500       4.72046400
C        3.54335000       3.86963000       0.31343000      -1.34702300       8.91056200       3.07374800
C        4.48739000       3.04021000       3.87216000      -0.93458000       1.93682200      -3.09084300
C        3.67304000       3.71600000       5.20523000      -5.01427300      -0.58298800      -4.28497200
C        2.54475000       2.92662000       5.74009000       2.72719000       4.05744900      -3.85038000
C        1.06561000       6.18762000       0.45433000      -3.64078600       1.23596500       3.27697800
C        2.48158000       5.36163000       3.02039000      -4.64873300       2.00674000       0.47812400
C        2.14628000       6.69560000       4.79637000       1.28244700      -0.80941600       0.89338000
C        2.22922000       4.53155000       5.31502000      -0.17876600      -2.31245300       0.44657800
C        4.66976000       1.47052000       0.97548000       9.63024700       1.07718600       0.66646600
C        2.64911000       7.74691000       0.70600000      -0.97589800      -0.40995700      -0.66400100
C        2.62733000       1.30932000       2.55962000      11.82659400       6.67571900       2.87803100
C        4.58639000       0.07162000       5.68590000       0.86818100       0.72440000      -1.40863300
C        3.01871000       2.01127000       0.31638000      -6.00514800      -3.70484600       0.12875800
C        3.50885000       1.10078000       1.36715000      -5.61727500      -4.85925900       1.96972200
C        5.00199000       1.67406000       3.13973000      -2.67104300       0.81177600       5.72757800
C        5.66009000       0.77471000       4.93773000      -4.60533100      -1.56540100       0.48786800
C        3.89329000       5.13487000       1.21575000       5.30803800       1.77142900      -4.52144500
C        3.74048000       5.62055000       2.45907000      -4.87172900       1.52776700       5.17975500
C        6.21632000       3.11869000       5.40484000      -3.62960300       9.19587700       1.55759700
C        6.46966000       1.88978000       5.05804000      -0.28528500      -3.94192500      -1.79384000
C        4.29563000       3.20873000       7.31064000       4.35395800      10.39814000      -2.70553600
C        4.26684000       6.70980000       3.68803000       4.01281000      -3.55803300      -2.16003000
C        3.43290000       7.16847000       4.93822000       4.35602500       0.31548900      -2.14124700
C        0.93742000       6.61655000       6.18519000       3.25662600      -4.23160700       7.79666200
C        6.42346000       1.06029000       7.43864000       0.14075400      -0.24067200       1.82323100
C        5.91590000       7.01862000       2.87662000      -1.19037200      -2.03219200      -1.52385600
C        6.07499000       1.41938000       1.09734000       1.35571200      -1.16586700       0.16424800
C        7.59598000       7.00897000       4.03499000       6.70127200      -3.87622800      10.26723700
C        7.90488000       3.27867000       7.07430000       2.00675700      -4.41715100       0.20856200
C        0.39754000       0.32425000       2.05224000      -3.07114600      -2.29665300       0.72073800
C        7.30881000       1.56801000       4.02157000       4.87324100       0.32686200      -0.49309200
C        4.78462000       0.47866000       7.02546000       2.03289900       3.57121900       0.52046500
C        5.16236000       5.89493000       0.80122000       2.15281300      -4.60039400      -0.03746800
C        5.81197000       4.32719000       1.08841000       0.52283100      -1.15452400      -1.27580200
C        7.04230000       4.78861000       5.01496000       2.52055900      -7.87004700       0.29002500
C        5.61409000       3.89058000       7.39136000       1.79677800       1.06033200       3.17188800
C        6.24169000       6.52011000       1.48865000      -1.55850600       2.09962000      -0.66531400
C        6.64331000       7.74887000       7.98833000       3.09450500      -0.73138200       1.32653000
C        4.75759000       3.73562000       6.01992000       6.75238900      -0.28181900       3.01351100
C        2.31872000       1.07200000       4.28671000      -3.53869600       1.79087300       3.83243900
64
Lattice="7.527393 0.0 0.0 0.0 7.527393 0.0 0.0 0.0 7.527393" Properties=species:S:1:pos:R:3:force:R:3 config_type=nep2xyz virial="94.95007443517267 16.976247811769728 0.11711616229864404 16.976247811769728 70.38361902871608 -3.873626252251862 0.11711616229864404 -3.873626252251862 79.72868961953685" energy=-429.744194 pbc="T T T"
C        6.58202000       5.59737000       6.22743000       2.88626700       0.09197700       1.45093100
C        6.48978000       2.14257000       3.30565000       4.05383900       7.67875100       4.16707800
C        7.33119000       0.10885000       2.37230000       1.00802400      -1.03481400       2.57962200
C        6.60840000       6.37980000       4.71622000      -0.64289800      -7.44597700      -5.51384400
C        7.36573000       2.01475000       7.02076000       2.23640200      -2.32729600       4.07500600
C        0.93061000       1.08066000       0.23655000      -3.14140900      -3.10163800      -0.59228200
C        0.36978000       0.27741000       4.23656000       2.37789500       2.60676500      -0.63566500
C        5.92159000       1.50452000       6.82142000       4.98432700      -1.33507100       1.16551200
C        1.25053000       3.76659000       1.02537000      -0.64290900       0.93573700       3.11259300
C        6.80879000       5.80737000       1.03112000      -1.19819800      -4.97998700       1.55969600
C        7.37871000       4.28063000       3.43412000       0.87858800       1.88327700      -0.42598500
C        6.06907000       3.25136000       4.30699000       5.53739800      -0.84159900      -2.89525500
C        6.39007000       6.49196000       7.44801000       0.14307600      -1.24855800      -2.32658900
C        5.48703000       7.44525000       0.24961000       3.59857400       7.41687000      -2.96074500
C        7.21159000       5.85690000       3.46302000       3.80986200      -5.67674100       1.90177800
C        6.80393000       7.30478000       5.58983000       1.31064700       6.83941000      -2.16621300
C        2.29693000       5.78518000       1.84941000      -0.67209300      -1.20990000       0.34550100
C        3.78772000       1.91176000       1.19629000      -0.09723800      -0.42497700       0.71241600
C        2.33300000       1.37673000       4.74720000      -3.82647300       1.17204800      -9.07380500
C        0.56391000       1.60314000       4.88869000      -4.49750000      -2.09447000      -3.27830600
C        2.28572000       3.06604000       6.43480000      -0.49940200       1.82229800       3.39247700
C        1.74098000       0.71682000       1.64933000      -9.44059200      14.02394800      -1.12735300
C        1.41720000       2.33998000       2.25077000       5.42374900      -0.05419500       6.61185200
C        5.04670000       4.16081000       3.88888000      -0.33932800      -7.15894000      -2.02634600
C        1.22057000       3.07152000       7.43137000      -3.40013900       1.02278600      -3.40561400
C        3.40198000       4.97876000       1.17025000     -14.89627200      -8.52186800       0.04706100
C        0.55257000       3.53075000       2.21844000      -3.30702900      -1.14357100       0.53448900
C        2.37100000       3.92424000       4.34484000      -0.25724700      -0.51368700      -4.34034900
C        0.93133000       7.15622000       0.23615000       0.98053300      -2.09391400      -3.67710400
C        2.46987000       7.22828000       1.87775000       3.72665300      -5.57536800      -0.49599800
C        1.55974000       5.30538000       4.09005000      -2.68587100      -1.08678100       2.36769100
C        0.62623000       5.96590000       6.75278000       5.07815200       0.14512900       0.14907900
C        4.24520000       1.61496000       5.52280000      -0.66397900      -1.43787800      -2.62736100
C        2.97278000       0.46757000       2.85930000       4.32711900       0.73508000       3.76600900
C        5.46374000       1.40412000       3.30398000      -7.09016100      -7.30413700      -2.05921100
C        4.24083000       7.30908000       5.17721000      -1.87497000       3.10509100       5.41742800
C        3.50527000       1.35210000       7.47480000      -1.95018800      -2.58717400       2.07214500
C        4.57564000       2.00904000       2.26044000      -2.33638000      -0.66725600       1.99616300
C        5.85152000       3.57207000       1.32557000      -0.66082200      -2.45098000       0.71340500
C        2.10485000       2.61307000       3.57613000      -0.72147500      -1.82543300       1.89226400
C        3.59398000       3.97737000       7.27821000      -2.15616900       1.60473900       4.80422700
C        4.40205000       4.06314000       2.58072000      -0.37196600      -1.90913700      -2.28857000
C        4.95416000       5.20859000       5.39055000      -2.05802800      -1.96498200      15.91444000
C        2.26975000       4.30505000       5.68743000      -0.72029500      -0.93347800      -1.24298800
C        2.59645000       7.43455000       0.11762000       3.48551000       0.35044000      -1.88515900
C        3.67970000       7.43280000       3.98458000      -3.55139200      -4.51555000      -6.12496700
C        2.79303000       5.75653000       3.79756000       2.53139700       4.33989900      -4.77782200
C        2.09495000       5.95606000       5.87760000      -7.55878100      -8.51991300       0.08421000
C        4.43276000       6.77105000       7.50402000      -5.90142700      -4.62301900       2.32574800
C        6.01853000       0.01490000       2.98629000      -5.10830900       0.54135000      -2.91116000
C        5.35935000       5.34695000       4.25116000       3.15914700      10.25039100      -4.48164200
C        2.45003000       1.59811000       5.97269000       3.24663300       5.49806900       7.50676600
C        0.14362000       4.59880000       7.22636000      -0.34581900       3.07119800       0.10121800
C        6.80890000       2.43863000       1.99834000       0.29914700       5.33718600      -2.91307000
C        6.63522000       1.22027000       5.49479000       0.75855900      -0.82872100       4.09785000
C        4.64439000       2.09433000       6.83879000       2.64416100      -1.48020800       0.58565200
C        4.79558000       3.24547000       0.36870000       0.63959900       0.10543900      -4.55225700
C        5.45562000       5.31091000       1.81363000       5.72097800      -2.01516500      -0.45848400
C        4.81783000       4.45554000       6.87992000      -0.79708900       2.64696200      -6.69132400
C        3.64235000       4.63744000       3.63507000      -2.77852100      -3.90070800       1.58417800
C        4.34753000       5.72226000       1.18160000       8.81134200      12.36701600      -3.55061900
C        0.32132000       6.32919000       1.76921000       0.88844100       2.17357300       1.02378200
C        4.74854000       6.54835000       2.70293000       5.19274800       0.35411200       0.89668100
C        3.22597000       6.52431000       6.08377000       6.45160100       6.71354900       2.55113700
64
Lattice="7.527393 0.0 0.0 0.0 7.527393 0.0 0.0 0.0 7.527393" Properties=species:S:1:pos:R:3:force:R:3 config_type=nep2xyz virial="109.09758385210723 -29.503268750103448 -11.350614990218213 -29.503268750103448 161.45587973781554 3.8949815701124733 -11.350614990218213 3.8949815701124733 88.53405260222688" energy=-417.941638 pbc="T T T"
C        4.96347000       3.68944000       1.55890000      -0.90956100       0.21347500      -1.38176700
C        4.91049000       0.09566000       1.94335000      -8.35781300       3.39336500      -3.08036400
C        5.84607000       0.34691000       7.23449000       2.27705900      -2.68184200       0.33117900
C        1.18415000       4.72368000       5.03446000      -2.47969100      -3.60806200      -0.10805900
C        0.31559000       1.57039000       0.91344000      11.57057900     -14.69368900       0.42822800
C        5.94611000       6.99050000       2.10208000       8.83484200      -8.90160600       4.34969800
C        1.51523000       0.93261000       3.58904000       1.61836700       4.31652200      -4.92556700
C        0.39212000       2.09424000       6.51875000       0.18249200       3.74071500      -3.19820900
C        3.61329000       1.78501000       1.81659000      -4.64046600       2.90038900      -0.15990600
C        7.50633000       5.42705000       7.47198000      -6.59770200       2.86407500       0.69356200
C        1.20070000       3.76816000       2.61128000      13.43390000      -9.33788400     -10.62631400
C        5.40133000       5.87382000       3.37267000      -0.80201400      -1.30392900       2.31050900
C        5.70224000       4.73806000       7.07775000       2.96659100      -1.93270800      -1.28402300